VARIABLES = X,Y,Z,PERMEABILITY
ZONE T = DEFAULT, N = 6337, E = 6336, F = FEPOINT, ET = TRIANGLE
1.030610152128e-03 0.000000000000e+00 0.000000000000e+00 1.781693928623e-04
1.025647482551e-03 1.010174599062e-04 0.000000000000e+00 1.781361977563e-04
1.010807267042e-03 2.010620664518e-04 0.000000000000e+00 1.780998506916e-04
9.862324249867e-04 2.991703353858e-04 0.000000000000e+00 1.780606974268e-04
9.521596255497e-04 3.943974304468e-04 0.000000000000e+00 1.780191110225e-04
9.089170084153e-04 4.858262626531e-04 0.000000000000e+00 1.779754883976e-04
8.569210236252e-04 5.725763223703e-04 0.000000000000e+00 1.779302466371e-04
7.966724209370e-04 6.538121591011e-04 0.000000000000e+00 1.778838190848e-04
7.287514273297e-04 7.287514273297e-04 0.000000000000e+00 1.778366512535e-04
6.538121591011e-04 7.966724209370e-04 0.000000000000e+00 1.777891965892e-04
5.725763223703e-04 8.569210236252e-04 0.000000000000e+00 1.777419121304e-04
4.858262626531e-04 9.089170084153e-04 0.000000000000e+00 1.776952541017e-04
3.943974304468e-04 9.521596255497e-04 0.000000000000e+00 1.776496734858e-04
2.991703353858e-04 9.862324249867e-04 0.000000000000e+00 1.776056116176e-04
2.010620664518e-04 1.010807267042e-03 0.000000000000e+00 1.775634958458e-04
1.010174599062e-04 1.025647482551e-03 0.000000000000e+00 1.775237353056e-04
6.310667119864e-20 1.030610152128e-03 0.000000000000e+00 1.774867168487e-04
-1.010174599062e-04 1.025647482551e-03 0.000000000000e+00 1.774528011735e-04
-2.010620664518e-04 1.010807267042e-03 0.000000000000e+00 1.774223191971e-04
-2.991703353858e-04 9.862324249867e-04 0.000000000000e+00 1.773955687112e-04
-3.943974304468e-04 9.521596255497e-04 0.000000000000e+00 1.773728113571e-04
-4.858262626531e-04 9.089170084153e-04 0.000000000000e+00 1.773542699567e-04
-5.725763223703e-04 8.569210236252e-04 0.000000000000e+00 1.773401262290e-04
-6.538121591011e-04 7.966724209370e-04 0.000000000000e+00 1.773305189195e-04
-7.287514273297e-04 7.287514273297e-04 0.000000000000e+00 1.773255423662e-04
-7.966724209370e-04 6.538121591011e-04 0.000000000000e+00 1.773252455173e-04
-8.569210236252e-04 5.725763223703e-04 0.000000000000e+00 1.773296314164e-04
-9.089170084153e-04 4.858262626531e-04 0.000000000000e+00 1.773386571592e-04
-9.521596255497e-04 3.943974304468e-04 0.000000000000e+00 1.773522343257e-04
-9.862324249867e-04 2.991703353858e-04 0.000000000000e+00 1.773702298818e-04
-1.010807267042e-03 2.010620664518e-04 0.000000000000e+00 1.773924675411e-04
-1.025647482551e-03 1.010174599062e-04 0.000000000000e+00 1.774187295716e-04
-1.030610152128e-03 1.262133423973e-19 0.000000000000e+00 1.774487590256e-04
-1.025647482551e-03 -1.010174599062e-04 0.000000000000e+00 1.774822623663e-04
-1.010807267042e-03 -2.010620664518e-04 0.000000000000e+00 1.775189124615e-04
-9.862324249867e-04 -2.991703353858e-04 0.000000000000e+00 1.775583519077e-04
-9.521596255497e-04 -3.943974304468e-04 0.000000000000e+00 1.776001966468e-04
-9.089170084153e-04 -4.858262626531e-04 0.000000000000e+00 1.776440398326e-04
-8.569210236252e-04 -5.725763223703e-04 0.000000000000e+00 1.776894559043e-04
-7.966724209370e-04 -6.538121591011e-04 0.000000000000e+00 1.777360048194e-04
-7.287514273297e-04 -7.287514273297e-04 0.000000000000e+00 1.777832364014e-04
-6.538121591011e-04 -7.966724209370e-04 0.000000000000e+00 1.778306947542e-04
-5.725763223703e-04 -8.569210236252e-04 0.000000000000e+00 1.778779226974e-04
-4.858262626531e-04 -9.089170084153e-04 0.000000000000e+00 1.779244661778e-04
-3.943974304468e-04 -9.521596255497e-04 0.000000000000e+00 1.779698786146e-04
-2.991703353858e-04 -9.862324249867e-04 0.000000000000e+00 1.780137251354e-04
-2.010620664518e-04 -1.010807267042e-03 0.000000000000e+00 1.780555866671e-04
-1.010174599062e-04 -1.025647482551e-03 0.000000000000e+00 1.780950638446e-04
-1.893200135959e-19 -1.030610152128e-03 0.000000000000e+00 1.781317807056e-04
1.010174599062e-04 -1.025647482551e-03 0.000000000000e+00 1.781653881422e-04
2.010620664518e-04 -1.010807267042e-03 0.000000000000e+00 1.781955670826e-04
2.991703353858e-04 -9.862324249867e-04 0.000000000000e+00 1.782220313813e-04
3.943974304468e-04 -9.521596255497e-04 0.000000000000e+00 1.782445303951e-04
4.858262626531e-04 -9.089170084153e-04 0.000000000000e+00 1.782628512303e-04
5.725763223703e-04 -8.569210236252e-04 0.000000000000e+00 1.782768206445e-04
6.538121591011e-04 -7.966724209370e-04 0.000000000000e+00 1.782863065909e-04
7.287514273297e-04 -7.287514273297e-04 0.000000000000e+00 1.782912193956e-04
7.966724209370e-04 -6.538121591011e-04 0.000000000000e+00 1.782915125599e-04
8.569210236252e-04 -5.725763223703e-04 0.000000000000e+00 1.782871831818e-04
9.089170084153e-04 -4.858262626531e-04 0.000000000000e+00 1.782782719931e-04
9.521596255497e-04 -3.943974304468e-04 0.000000000000e+00 1.782648630113e-04
9.862324249867e-04 -2.991703353858e-04 0.000000000000e+00 1.782470828069e-04
1.010807267042e-03 -2.010620664518e-04 0.000000000000e+00 1.782250993901e-04
1.025647482551e-03 -1.010174599062e-04 0.000000000000e+00 1.781991207225e-04
8.244881217027e-03 0.000000000000e+00 0.000000000000e+00 1.792630859160e-04
8.205179860412e-03 8.081396792499e-04 0.000000000000e+00 1.791299693466e-04
8.086458136333e-03 1.608496531615e-03 0.000000000000e+00 1.789840345365e-04
7.889859399894e-03 2.393362683086e-03 0.000000000000e+00 1.788266320083e-04
7.617277004398e-03 3.155179443574e-03 0.000000000000e+00 1.786592275594e-04
7.271336067322e-03 3.886610101224e-03 0.000000000000e+00 1.784833898164e-04
6.855368189002e-03 4.580610578963e-03 0.000000000000e+00 1.783007764966e-04
6.373379367496e-03 5.230497272809e-03 0.000000000000e+00 1.781131194810e-04
5.830011418637e-03 5.830011418637e-03 0.000000000000e+00 1.779222088336e-04
5.230497272809e-03 6.373379367496e-03 0.000000000000e+00 1.777298759207e-04
4.580610578963e-03 6.855368189002e-03 0.000000000000e+00 1.775379758074e-04
3.886610101224e-03 7.271336067322e-03 0.000000000000e+00 1.773483691186e-04
3.155179443574e-03 7.617277004398e-03 0.000000000000e+00 1.771629035642e-04
2.393362683086e-03 7.889859399894e-03 0.000000000000e+00 1.769833953353e-04
1.608496531615e-03 8.086458136333e-03 0.000000000000e+00 1.768116105774e-04
8.081396792499e-04 8.205179860412e-03 0.000000000000e+00 1.766492471495e-04
5.048533695891e-19 8.244881217027e-03 0.000000000000e+00 1.764979168736e-04
-8.081396792499e-04 8.205179860412e-03 0.000000000000e+00 1.763591284761e-04
-1.608496531615e-03 8.086458136333e-03 0.000000000000e+00 1.762342714167e-04
-2.393362683086e-03 7.889859399894e-03 0.000000000000e+00 1.761246007959e-04
-3.155179443574e-03 7.617277004398e-03 0.000000000000e+00 1.760312235244e-04
-3.886610101224e-03 7.271336067322e-03 0.000000000000e+00 1.759550859304e-04
-4.580610578963e-03 6.855368189002e-03 0.000000000000e+00 1.758969629738e-04
-5.230497272809e-03 6.373379367496e-03 0.000000000000e+00 1.758574492221e-04
-5.830011418637e-03 5.830011418637e-03 0.000000000000e+00 1.758369517333e-04
-6.373379367496e-03 5.230497272809e-03 0.000000000000e+00 1.758356849713e-04
-6.855368189002e-03 4.580610578963e-03 0.000000000000e+00 1.758536678606e-04
-7.271336067322e-03 3.886610101224e-03 0.000000000000e+00 1.758907230614e-04
-7.617277004398e-03 3.155179443574e-03 0.000000000000e+00 1.759464785169e-04
-7.889859399894e-03 2.393362683086e-03 0.000000000000e+00 1.760203712923e-04
-8.086458136333e-03 1.608496531615e-03 0.000000000000e+00 1.761116536849e-04
-8.205179860412e-03 8.081396792499e-04 0.000000000000e+00 1.762194015481e-04
-8.244881217027e-03 1.009706739178e-18 0.000000000000e+00 1.763425247279e-04
-8.205179860412e-03 -8.081396792499e-04 0.000000000000e+00 1.764797794682e-04
-8.086458136333e-03 -1.608496531615e-03 0.000000000000e+00 1.766297826030e-04
-7.889859399894e-03 -2.393362683086e-03 0.000000000000e+00 1.767910273149e-04
-7.617277004398e-03 -3.155179443574e-03 0.000000000000e+00 1.769619002073e-04
-7.271336067322e-03 -3.886610101224e-03 0.000000000000e+00 1.771406994132e-04
-6.855368189002e-03 -4.580610578963e-03 0.000000000000e+00 1.773256534471e-04
-6.373379367496e-03 -5.230497272809e-03 0.000000000000e+00 1.775149404975e-04
-5.830011418637e-03 -5.830011418637e-03 0.000000000000e+00 1.777067078610e-04
-5.230497272809e-03 -6.373379367496e-03 0.000000000000e+00 1.778990912290e-04
-4.580610578963e-03 -6.855368189002e-03 0.000000000000e+00 1.780902335611e-04
-3.886610101224e-03 -7.271336067322e-03 0.000000000000e+00 1.782783033046e-04
-3.155179443574e-03 -7.617277004398e-03 0.000000000000e+00 1.784615117602e-04
-2.393362683086e-03 -7.889859399894e-03 0.000000000000e+00 1.786381294257e-04
-1.608496531615e-03 -8.086458136333e-03 0.000000000000e+00 1.788065011995e-04
-8.081396792499e-04 -8.205179860412e-03 0.000000000000e+00 1.789650603595e-04
-1.514560108767e-18 -8.244881217027e-03 0.000000000000e+00 1.791123412779e-04
8.081396792499e-04 -8.205179860412e-03 0.000000000000e+00 1.792469908619e-04
1.608496531615e-03 -8.086458136333e-03 0.000000000000e+00 1.793677787404e-04
2.393362683086e-03 -7.889859399894e-03 0.000000000000e+00 1.794736062379e-04
3.155179443574e-03 -7.617277004398e-03 0.000000000000e+00 1.795635141864e-04
3.886610101224e-03 -7.271336067322e-03 0.000000000000e+00 1.796366896316e-04
4.580610578963e-03 -6.855368189002e-03 0.000000000000e+00 1.796924714866e-04
5.230497272809e-03 -6.373379367496e-03 0.000000000000e+00 1.797303551730e-04
5.830011418637e-03 -5.830011418637e-03 0.000000000000e+00 1.797499962771e-04
6.373379367496e-03 -5.230497272809e-03 0.000000000000e+00 1.797512132267e-04
6.855368189002e-03 -4.580610578963e-03 0.000000000000e+00 1.797339889748e-04
7.271336067322e-03 -3.886610101224e-03 0.000000000000e+00 1.796984716588e-04
7.617277004398e-03 -3.155179443574e-03 0.000000000000e+00 1.796449741816e-04
7.889859399894e-03 -2.393362683086e-03 0.000000000000e+00 1.795739726554e-04
8.086458136333e-03 -1.608496531615e-03 0.000000000000e+00 1.794861036346e-04
8.205179860412e-03 -8.081396792499e-04 0.000000000000e+00 1.793821600697e-04
2.782647410747e-02 0.000000000000e+00 0.000000000000e+00 1.817419025121e-04
2.769248202889e-02 2.727471417468e-03 0.000000000000e+00 1.813870847453e-04
2.729179621012e-02 5.428675794199e-03 0.000000000000e+00 1.809969201270e-04
2.662827547464e-02 8.077599055415e-03 0.000000000000e+00 1.805748334627e-04
2.570830988984e-02 1.064873062206e-02 0.000000000000e+00 1.801246044442e-04
2.454075922721e-02 1.311730909163e-02 0.000000000000e+00 1.796503380293e-04
2.313686763788e-02 1.545956070400e-02 0.000000000000e+00 1.791564287156e-04
2.151015536530e-02 1.765292829573e-02 0.000000000000e+00 1.786475193604e-04
1.967628853790e-02 1.967628853790e-02 0.000000000000e+00 1.781284553877e-04
1.765292829573e-02 2.151015536530e-02 0.000000000000e+00 1.776042353501e-04
1.545956070400e-02 2.313686763788e-02 0.000000000000e+00 1.770799588593e-04
1.311730909163e-02 2.454075922721e-02 0.000000000000e+00 1.765607728808e-04
1.064873062206e-02 2.570830988984e-02 0.000000000000e+00 1.760518173068e-04
8.077599055415e-03 2.662827547464e-02 0.000000000000e+00 1.755581705995e-04
5.428675794199e-03 2.729179621012e-02 0.000000000000e+00 1.750847961546e-04
2.727471417468e-03 2.769248202889e-02 0.000000000000e+00 1.746364898836e-04
1.703880122363e-18 2.782647410747e-02 0.000000000000e+00 1.742178293874e-04
-2.727471417468e-03 2.769248202889e-02 0.000000000000e+00 1.738331249913e-04
-5.428675794199e-03 2.729179621012e-02 0.000000000000e+00 1.734863728578e-04
-8.077599055415e-03 2.662827547464e-02 0.000000000000e+00 1.731812103798e-04
-1.064873062206e-02 2.570830988984e-02 0.000000000000e+00 1.729208740971e-04
-1.311730909163e-02 2.454075922721e-02 0.000000000000e+00 1.727081604501e-04
-1.545956070400e-02 2.313686763788e-02 0.000000000000e+00 1.725453897898e-04
-1.765292829573e-02 2.151015536530e-02 0.000000000000e+00 1.724343741788e-04
-1.967628853790e-02 1.967628853790e-02 0.000000000000e+00 1.723763896339e-04
-2.151015536530e-02 1.765292829573e-02 0.000000000000e+00 1.723721535564e-04
-2.313686763788e-02 1.545956070400e-02 0.000000000000e+00 1.724218081605e-04
-2.454075922721e-02 1.311730909163e-02 0.000000000000e+00 1.725249107252e-04
-2.570830988984e-02 1.064873062206e-02 0.000000000000e+00 1.726804314547e-04
-2.662827547464e-02 8.077599055415e-03 0.000000000000e+00 1.728867596306e-04
-2.729179621012e-02 5.428675794199e-03 0.000000000000e+00 1.731417185693e-04
-2.769248202889e-02 2.727471417468e-03 0.000000000000e+00 1.734425896728e-04
-2.782647410747e-02 3.407760244726e-18 0.000000000000e+00 1.737861455769e-04
-2.769248202889e-02 -2.727471417468e-03 0.000000000000e+00 1.741686920856e-04
-2.729179621012e-02 -5.428675794199e-03 0.000000000000e+00 1.745861182343e-04
-2.662827547464e-02 -8.077599055415e-03 0.000000000000e+00 1.750339534867e-04
-2.570830988984e-02 -1.064873062206e-02 0.000000000000e+00 1.755074307495e-04
-2.454075922721e-02 -1.311730909163e-02 0.000000000000e+00 1.760015536162e-04
-2.313686763788e-02 -1.545956070400e-02 0.000000000000e+00 1.765111660494e-04
-2.151015536530e-02 -1.765292829573e-02 0.000000000000e+00 1.770310225930e-04
-1.967628853790e-02 -1.967628853790e-02 0.000000000000e+00 1.775558571917e-04
-1.765292829573e-02 -2.151015536530e-02 0.000000000000e+00 1.780804487863e-04
-1.545956070400e-02 -2.313686763788e-02 0.000000000000e+00 1.785996820497e-04
-1.311730909163e-02 -2.454075922721e-02 0.000000000000e+00 1.791086019162e-04
-1.064873062206e-02 -2.570830988984e-02 0.000000000000e+00 1.796024609263e-04
-8.077599055415e-03 -2.662827547464e-02 0.000000000000e+00 1.800767588188e-04
-5.428675794199e-03 -2.729179621012e-02 0.000000000000e+00 1.805272742443e-04
-2.727471417468e-03 -2.769248202889e-02 0.000000000000e+00 1.809500888944e-04
-5.111640367090e-18 -2.782647410747e-02 0.000000000000e+00 1.813416047307e-04
2.727471417468e-03 -2.769248202889e-02 0.000000000000e+00 1.816985553148e-04
5.428675794199e-03 -2.729179621012e-02 0.000000000000e+00 1.820180124680e-04
8.077599055415e-03 -2.662827547464e-02 0.000000000000e+00 1.822973896207e-04
1.064873062206e-02 -2.570830988984e-02 0.000000000000e+00 1.825344432274e-04
1.311730909163e-02 -2.454075922721e-02 0.000000000000e+00 1.827272735384e-04
1.545956070400e-02 -2.313686763788e-02 0.000000000000e+00 1.828743258356e-04
1.765292829573e-02 -2.151015536530e-02 0.000000000000e+00 1.829743929758e-04
1.967628853790e-02 -1.967628853790e-02 0.000000000000e+00 1.830266197686e-04
2.151015536530e-02 -1.765292829573e-02 0.000000000000e+00 1.830305093594e-04
2.313686763788e-02 -1.545956070400e-02 0.000000000000e+00 1.829859314325e-04
2.454075922721e-02 -1.311730909163e-02 0.000000000000e+00 1.828931317168e-04
2.570830988984e-02 -1.064873062206e-02 0.000000000000e+00 1.827527419826e-04
2.662827547464e-02 -8.077599055415e-03 0.000000000000e+00 1.825657895054e-04
2.729179621012e-02 -5.428675794199e-03 0.000000000000e+00 1.823337048297e-04
2.769248202889e-02 -2.727471417468e-03 0.000000000000e+00 1.820583266299e-04
6.595904973622e-02 0.000000000000e+00 0.000000000000e+00 1.861643637379e-04
6.564143888329e-02 6.465117433999e-03 0.000000000000e+00 1.854289202097e-04
6.469166509066e-02 1.286797225292e-02 0.000000000000e+00 1.846145846935e-04
6.311887519915e-02 1.914690146469e-02 0.000000000000e+00 1.837279950756e-04
6.093821603518e-02 2.524143554859e-02 0.000000000000e+00 1.827768102301e-04
5.817068853858e-02 3.109288080980e-02 0.000000000000e+00 1.817696319796e-04
5.484294551202e-02 3.664488463170e-02 0.000000000000e+00 1.807158971404e-04
5.098703493997e-02 4.184397818247e-02 0.000000000000e+00 1.796257460396e-04
4.664009134910e-02 4.664009134910e-02 0.000000000000e+00 1.785098751479e-04
4.184397818247e-02 5.098703493997e-02 0.000000000000e+00 1.773793818982e-04
3.664488463170e-02 5.484294551202e-02 0.000000000000e+00 1.762456093420e-04
3.109288080980e-02 5.817068853858e-02 0.000000000000e+00 1.751199971404e-04
2.524143554859e-02 6.093821603518e-02 0.000000000000e+00 1.740139436722e-04
1.914690146469e-02 6.311887519915e-02 0.000000000000e+00 1.729386820198e-04
1.286797225292e-02 6.469166509066e-02 0.000000000000e+00 1.719051705144e-04
6.465117433999e-03 6.564143888329e-02 0.000000000000e+00 1.709239966451e-04
4.038826956713e-18 6.595904973622e-02 0.000000000000e+00 1.700052916524e-04
-6.465117433999e-03 6.564143888329e-02 0.000000000000e+00 1.691586521726e-04
-1.286797225292e-02 6.469166509066e-02 0.000000000000e+00 1.683930649411e-04
-1.914690146469e-02 6.311887519915e-02 0.000000000000e+00 1.677168307852e-04
-2.524143554859e-02 6.093821603518e-02 0.000000000000e+00 1.671374848748e-04
-3.109288080980e-02 5.817068853858e-02 0.000000000000e+00 1.666617113407e-04
-3.664488463170e-02 5.484294551202e-02 0.000000000000e+00 1.662952517706e-04
-4.184397818247e-02 5.098703493997e-02 0.000000000000e+00 1.660428086173e-04
-4.664009134910e-02 4.664009134910e-02 0.000000000000e+00 1.659079460491e-04
-5.098703493997e-02 4.184397818247e-02 0.000000000000e+00 1.658929921295e-04
-5.484294551202e-02 3.664488463170e-02 0.000000000000e+00 1.659989473201e-04
-5.817068853858e-02 3.109288080980e-02 0.000000000000e+00 1.662254050894e-04
-6.093821603518e-02 2.524143554859e-02 0.000000000000e+00 1.665704908180e-04
-6.311887519915e-02 1.914690146469e-02 0.000000000000e+00 1.670308251828e-04
-6.469166509066e-02 1.286797225292e-02 0.000000000000e+00 1.676015177447e-04
-6.564143888329e-02 6.465117433999e-03 0.000000000000e+00 1.682761955601e-04
-6.595904973622e-02 8.077653913426e-18 0.000000000000e+00 1.690470702680e-04
-6.564143888329e-02 -6.465117433999e-03 0.000000000000e+00 1.699050453278e-04
-6.469166509066e-02 -1.286797225292e-02 0.000000000000e+00 1.708398629407e-04
-6.311887519915e-02 -1.914690146469e-02 0.000000000000e+00 1.718402878101e-04
-6.093821603518e-02 -2.524143554859e-02 0.000000000000e+00 1.728943224257e-04
-5.817068853858e-02 -3.109288080980e-02 0.000000000000e+00 1.739894462008e-04
-5.484294551202e-02 -3.664488463170e-02 0.000000000000e+00 1.751128687773e-04
-5.098703493997e-02 -4.184397818247e-02 0.000000000000e+00 1.762517863662e-04
-4.664009134910e-02 -4.664009134910e-02 0.000000000000e+00 1.773936293028e-04
-4.184397818247e-02 -5.098703493997e-02 0.000000000000e+00 1.785262892110e-04
-3.664488463170e-02 -5.484294551202e-02 0.000000000000e+00 1.796383153115e-04
-3.109288080980e-02 -5.817068853858e-02 0.000000000000e+00 1.807190714276e-04
-2.524143554859e-02 -6.093821603518e-02 0.000000000000e+00 1.817588479655e-04
-1.914690146469e-02 -6.311887519915e-02 0.000000000000e+00 1.827489263278e-04
-1.286797225292e-02 -6.469166509066e-02 0.000000000000e+00 1.836815965748e-04
-6.465117433999e-03 -6.564143888329e-02 0.000000000000e+00 1.845501323577e-04
-1.211648087014e-17 -6.595904973622e-02 0.000000000000e+00 1.853487299532e-04
6.465117433999e-03 -6.564143888329e-02 0.000000000000e+00 1.860724203998e-04
1.286797225292e-02 -6.469166509066e-02 0.000000000000e+00 1.867169651289e-04
1.914690146469e-02 -6.311887519915e-02 0.000000000000e+00 1.872787460410e-04
2.524143554859e-02 -6.093821603518e-02 0.000000000000e+00 1.877546607007e-04
3.109288080980e-02 -5.817068853858e-02 0.000000000000e+00 1.881420322863e-04
3.664488463170e-02 -5.484294551202e-02 0.000000000000e+00 1.884385422515e-04
4.184397818247e-02 -5.098703493997e-02 0.000000000000e+00 1.886421914719e-04
4.664009134910e-02 -4.664009134910e-02 0.000000000000e+00 1.887512931366e-04
5.098703493997e-02 -4.184397818247e-02 0.000000000000e+00 1.887644979613e-04
5.484294551202e-02 -3.664488463170e-02 0.000000000000e+00 1.886808496284e-04
5.817068853858e-02 -3.109288080980e-02 0.000000000000e+00 1.884998658698e-04
6.093821603518e-02 -2.524143554859e-02 0.000000000000e+00 1.882216384608e-04
6.311887519915e-02 -1.914690146469e-02 0.000000000000e+00 1.878469437481e-04
6.469166509066e-02 -1.286797225292e-02 0.000000000000e+00 1.873773543157e-04
6.564143888329e-02 -6.465117433999e-03 0.000000000000e+00 1.868153420988e-04
1.288262690160e-01 0.000000000000e+00 0.000000000000e+00 1.927305054909e-04
1.282059353189e-01 1.262718248828e-02 0.000000000000e+00 1.914614339246e-04
1.263509083802e-01 2.513275830648e-02 0.000000000000e+00 1.900347014473e-04
1.232790531233e-01 3.739629192322e-02 0.000000000000e+00 1.884613391281e-04
1.190199531937e-01 4.929967880585e-02 0.000000000000e+00 1.867554917418e-04
1.136146260519e-01 6.072828283163e-02 0.000000000000e+00 1.849340881053e-04
1.071151279532e-01 7.157204029629e-02 0.000000000000e+00 1.830163647381e-04
9.958405261712e-02 8.172651988764e-02 0.000000000000e+00 1.810232905840e-04
9.109392841621e-02 9.109392841621e-02 0.000000000000e+00 1.789769488985e-04
8.172651988764e-02 9.958405261712e-02 0.000000000000e+00 1.768999332860e-04
7.157204029629e-02 1.071151279532e-01 0.000000000000e+00 1.748148083519e-04
6.072828283163e-02 1.136146260519e-01 0.000000000000e+00 1.727436728720e-04
4.929967880585e-02 1.190199531937e-01 0.000000000000e+00 1.707078470459e-04
3.739629192322e-02 1.232790531233e-01 0.000000000000e+00 1.687276879472e-04
2.513275830648e-02 1.263509083802e-01 0.000000000000e+00 1.668225211998e-04
1.262718248828e-02 1.282059353189e-01 0.000000000000e+00 1.650106641355e-04
7.888333899830e-18 1.288262690160e-01 0.000000000000e+00 1.633095073719e-04
-1.262718248828e-02 1.282059353189e-01 0.000000000000e+00 1.617356182592e-04
-2.513275830648e-02 1.263509083802e-01 0.000000000000e+00 1.603048306819e-04
-3.739629192322e-02 1.232790531233e-01 0.000000000000e+00 1.590322905041e-04
-4.929967880585e-02 1.190199531937e-01 0.000000000000e+00 1.579324334683e-04
-6.072828283163e-02 1.136146260519e-01 0.000000000000e+00 1.570188814639e-04
-7.157204029629e-02 1.071151279532e-01 0.000000000000e+00 1.563042526655e-04
-8.172651988764e-02 9.958405261712e-02 0.000000000000e+00 1.557998901517e-04
-9.109392841621e-02 9.109392841621e-02 0.000000000000e+00 1.555155215353e-04
-9.958405261712e-02 8.172651988764e-02 0.000000000000e+00 1.554588684378e-04
-1.071151279532e-01 7.157204029629e-02 0.000000000000e+00 1.556352292198e-04
-1.136146260519e-01 6.072828283163e-02 0.000000000000e+00 1.560470613803e-04
-1.190199531937e-01 4.929967880585e-02 0.000000000000e+00 1.566935917704e-04
-1.232790531233e-01 3.739629192322e-02 0.000000000000e+00 1.575704835349e-04
-1.263509083802e-01 2.513275830648e-02 0.000000000000e+00 1.586695886468e-04
-1.282059353189e-01 1.262718248828e-02 0.000000000000e+00 1.599788138906e-04
-1.288262690160e-01 1.577666779966e-17 0.000000000000e+00 1.614821257274e-04
-1.282059353189e-01 -1.262718248828e-02 0.000000000000e+00 1.631597149676e-04
-1.263509083802e-01 -2.513275830648e-02 0.000000000000e+00 1.649883348847e-04
-1.232790531233e-01 -3.739629192322e-02 0.000000000000e+00 1.669418159262e-04
-1.190199531937e-01 -4.929967880585e-02 0.000000000000e+00 1.689917466758e-04
-1.136146260519e-01 -6.072828283163e-02 0.000000000000e+00 1.711082951706e-04
-1.071151279532e-01 -7.157204029629e-02 0.000000000000e+00 1.732611288350e-04
-9.958405261712e-02 -8.172651988764e-02 0.000000000000e+00 1.754203775509e-04
-9.109392841621e-02 -9.109392841621e-02 0.000000000000e+00 1.775575752135e-04
-8.172651988764e-02 -9.958405261712e-02 0.000000000000e+00 1.796465125877e-04
-7.157204029629e-02 -1.071151279532e-01 0.000000000000e+00 1.816639394076e-04
-6.072828283163e-02 -1.136146260519e-01 0.000000000000e+00 1.835900661447e-04
-4.929967880585e-02 -1.190199531937e-01 0.000000000000e+00 1.854088340946e-04
-3.739629192322e-02 -1.232790531233e-01 0.000000000000e+00 1.871079437770e-04
-2.513275830648e-02 -1.263509083802e-01 0.000000000000e+00 1.886786531574e-04
-1.262718248828e-02 -1.282059353189e-01 0.000000000000e+00 1.901153761554e-04
-2.366500169949e-17 -1.288262690160e-01 0.000000000000e+00 1.914151263588e-04
1.262718248828e-02 -1.282059353189e-01 0.000000000000e+00 1.925768598538e-04
2.513275830648e-02 -1.263509083802e-01 0.000000000000e+00 1.936007745682e-04
3.739629192322e-02 -1.232790531233e-01 0.000000000000e+00 1.944876221841e-04
4.929967880585e-02 -1.190199531937e-01 0.000000000000e+00 1.952380835260e-04
6.072828283163e-02 -1.136146260519e-01 0.000000000000e+00 1.958522504491e-04
7.157204029629e-02 -1.071151279532e-01 0.000000000000e+00 1.963292476196e-04
8.172651988764e-02 -9.958405261712e-02 0.000000000000e+00 1.966670169043e-04
9.109392841621e-02 -9.109392841621e-02 0.000000000000e+00 1.968622759184e-04
9.958405261712e-02 -8.172651988764e-02 0.000000000000e+00 1.969106509568e-04
1.071151279532e-01 -7.157204029629e-02 0.000000000000e+00 1.968069733511e-04
1.136146260519e-01 -6.072828283163e-02 0.000000000000e+00 1.965457175032e-04
1.190199531937e-01 -4.929967880585e-02 0.000000000000e+00 1.961215488142e-04
1.232790531233e-01 -3.739629192322e-02 0.000000000000e+00 1.955299409299e-04
1.263509083802e-01 -2.513275830648e-02 0.000000000000e+00 1.947678148768e-04
1.282059353189e-01 -1.262718248828e-02 0.000000000000e+00 1.938341486365e-04
2.226117928597e-01 0.000000000000e+00 0.000000000000e+00 2.006514326945e-04
2.215398562311e-01 2.181977133975e-02 0.000000000000e+00 1.987785385230e-04
2.183343696810e-01 4.342940635359e-02 0.000000000000e+00 1.966055268586e-04
2.130262037971e-01 6.462079244332e-02 0.000000000000e+00 1.941502066087e-04
2.056664791187e-01 8.518984497651e-02 0.000000000000e+00 1.914402910078e-04
1.963260738177e-01 1.049384727331e-01 0.000000000000e+00 1.885119507135e-04
1.850949411031e-01 1.236764856320e-01 0.000000000000e+00 1.854076508392e-04
1.720812429224e-01 1.412234263658e-01 0.000000000000e+00 1.821735498841e-04
1.574103083032e-01 1.574103083032e-01 0.000000000000e+00 1.788568018418e-04
1.412234263658e-01 1.720812429224e-01 0.000000000000e+00 1.755031022632e-04
1.236764856320e-01 1.850949411031e-01 0.000000000000e+00 1.721547575170e-04
1.049384727331e-01 1.963260738177e-01 0.000000000000e+00 1.688494523938e-04
8.518984497651e-02 2.056664791187e-01 0.000000000000e+00 1.656197710771e-04
6.462079244332e-02 2.130262037971e-01 0.000000000000e+00 1.624934158474e-04
4.342940635359e-02 2.183343696810e-01 0.000000000000e+00 1.594939844121e-04
2.181977133975e-02 2.215398562311e-01 0.000000000000e+00 1.566421178574e-04
1.363104097891e-17 2.226117928597e-01 0.000000000000e+00 1.539568154220e-04
-2.181977133975e-02 2.215398562311e-01 0.000000000000e+00 1.514567228329e-04
-4.342940635359e-02 2.183343696810e-01 0.000000000000e+00 1.491612295225e-04
-6.462079244332e-02 2.130262037971e-01 0.000000000000e+00 1.470912494175e-04
-8.518984497651e-02 2.056664791187e-01 0.000000000000e+00 1.452696047866e-04
-1.049384727331e-01 1.963260738177e-01 0.000000000000e+00 1.437209788735e-04
-1.236764856320e-01 1.850949411031e-01 0.000000000000e+00 1.424714470906e-04
-1.412234263658e-01 1.720812429224e-01 0.000000000000e+00 1.415476344430e-04
-1.574103083032e-01 1.574103083032e-01 0.000000000000e+00 1.409755746119e-04
-1.720812429224e-01 1.412234263658e-01 0.000000000000e+00 1.407793609099e-04
-1.850949411031e-01 1.236764856320e-01 0.000000000000e+00 1.409796809191e-04
-1.963260738177e-01 1.049384727331e-01 0.000000000000e+00 1.415923181606e-04
-2.056664791187e-01 8.518984497651e-02 0.000000000000e+00 1.426266916879e-04
-2.130262037971e-01 6.462079244332e-02 0.000000000000e+00 1.440844952393e-04
-2.183343696810e-01 4.342940635359e-02 0.000000000000e+00 1.459584974918e-04
-2.215398562311e-01 2.181977133975e-02 0.000000000000e+00 1.482315764321e-04
-2.226117928597e-01 2.726208195781e-17 0.000000000000e+00 1.508760813096e-04
-2.215398562311e-01 -2.181977133975e-02 0.000000000000e+00 1.538536372406e-04
-2.183343696810e-01 -4.342940635359e-02 0.000000000000e+00 1.571155184983e-04
-2.130262037971e-01 -6.462079244332e-02 0.000000000000e+00 1.606037038696e-04
-2.056664791187e-01 -8.518984497651e-02 0.000000000000e+00 1.642526811694e-04
-1.963260738177e-01 -1.049384727331e-01 0.000000000000e+00 1.679919857935e-04
-1.850949411031e-01 -1.236764856320e-01 0.000000000000e+00 1.717493491537e-04
-1.720812429224e-01 -1.412234263658e-01 0.000000000000e+00 1.754542179620e-04
-1.574103083032e-01 -1.574103083032e-01 0.000000000000e+00 1.790413131832e-04
-1.412234263658e-01 -1.720812429224e-01 0.000000000000e+00 1.824538555085e-04
-1.236764856320e-01 -1.850949411031e-01 0.000000000000e+00 1.856461085810e-04
-1.049384727331e-01 -1.963260738177e-01 0.000000000000e+00 1.885849797954e-04
-8.518984497651e-02 -2.056664791187e-01 0.000000000000e+00 1.912505506473e-04
-6.462079244332e-02 -2.130262037971e-01 0.000000000000e+00 1.936355524491e-04
-4.342940635359e-02 -2.183343696810e-01 0.000000000000e+00 1.957439269959e-04
-2.181977133975e-02 -2.215398562311e-01 0.000000000000e+00 1.975886940580e-04
-4.089312293672e-17 -2.226117928597e-01 0.000000000000e+00 1.991893822068e-04
2.181977133975e-02 -2.215398562311e-01 0.000000000000e+00 2.005692737429e-04
4.342940635359e-02 -2.183343696810e-01 0.000000000000e+00 2.017526831019e-04
6.462079244332e-02 -2.130262037971e-01 0.000000000000e+00 2.027624462153e-04
8.518984497651e-02 -2.056664791187e-01 0.000000000000e+00 2.036177567401e-04
1.049384727331e-01 -1.963260738177e-01 0.000000000000e+00 2.043324488180e-04
1.236764856320e-01 -1.850949411031e-01 0.000000000000e+00 2.049137954673e-04
1.412234263658e-01 -1.720812429224e-01 0.000000000000e+00 2.053618650003e-04
1.574103083032e-01 -1.574103083032e-01 0.000000000000e+00 2.056694530850e-04
1.720812429224e-01 -1.412234263658e-01 0.000000000000e+00 2.058225842756e-04
1.850949411031e-01 -1.236764856320e-01 0.000000000000e+00 2.058015538386e-04
1.963260738177e-01 -1.049384727331e-01 0.000000000000e+00 2.055824581567e-04
2.056664791187e-01 -8.518984497651e-02 0.000000000000e+00 2.051391385823e-04
2.130262037971e-01 -6.462079244332e-02 0.000000000000e+00 2.044454370219e-04
2.183343696810e-01 -4.342940635359e-02 0.000000000000e+00 2.034776297653e-04
2.215398562311e-01 -2.181977133975e-02 0.000000000000e+00 2.022168697988e-04
3.534992821800e-01 0.000000000000e+00 0.000000000000e+00 2.070277173713e-04
3.517970865151e-01 3.464898874784e-02 0.000000000000e+00 2.046605506085e-04
3.467068925953e-01 6.896428879297e-02 0.000000000000e+00 2.017485014116e-04
3.382777217705e-01 1.026154250373e-01 0.000000000000e+00 1.983186330880e-04